252
 i =        0, time =        0.000, E =        49.3780970556
  S        72.6292911429       37.7116639269       -8.4194729989
  S        74.0308500537       35.6944382682       -4.5681534591
  S        76.8917689430       37.9371209364       -1.7850670667
  C        71.5530456298       36.5770578228       -9.1304131885
  C        71.3250074199       35.4596205840       -8.3515176834
  C        72.0815470019       35.4581535969       -7.0917933942
  C        72.9019004256       36.6159602396       -6.9905763204
  C        73.8014848824       36.8231721317       -5.8696548655
  C        74.4833960000       38.0080579691       -5.6591791526
  C        75.1817951666       38.0793140980       -4.3928966086
  C        75.0827876557       36.9417817929       -3.6881437217
  C        75.7776532385       36.7476163122       -2.4402368074
  C        75.7018816415       35.5508801815       -1.7916278882
  C        76.5594852580       35.5524248900       -0.6158612667
  C        77.2058582745       36.7658863805       -0.4985372272
  H        71.2229604160       36.8069833326      -10.1529465835
  H        70.5615430825       34.7313108431       -8.5455967883
  H        71.7998587155       34.7386276989       -6.2945444009
  H        74.5164770204       38.8401847840       -6.3272554164
  H        75.8063396295       38.9030628543       -3.9579306234
  H        75.2981704129       34.5975362336       -2.1149109992
  H        76.7622852850       34.6497803084       -0.0911772563
  C        77.9058638548       37.0122786517        0.6695002123
  S        78.3174368023       35.8831448862        1.9379962262
  C        79.2942557475       37.1392196397        2.6529514311
  C        80.1103535742       37.0172048472        3.8474966067
  S        80.9810530655       38.3056102847        4.7479512741
  C        81.5514667264       37.0785668353        5.9397440423
  C        82.3925211519       37.2564417856        7.0783862064
  S        82.7975503948       35.9680521176        8.1983797514
  C        83.9325649491       36.9697719792        9.1092333414
  C        83.9529098859       38.2360349651        8.5458635776
  C        83.0547656984       38.3897086359        7.4541163282
  H        83.1030049445       39.3630448465        6.8794323631
  H        84.5606703540       38.9898525703        9.0058174450
  H        84.4402377305       36.5105595156        9.9548942644
  C        81.2011518753       35.8364019555        5.5550746110
  C        80.2729670999       35.8536231863        4.5313154945
  H        79.8665668217       34.9239967945        4.2082248606
  H        81.4333259645       34.8834892266        5.9612444622
  C        79.2463556513       38.3157725656        1.9380477122
  C        78.4457746752       38.2235338140        0.7854524510
  H        78.2509848461       39.0885935736        0.1859474176
  H        79.7275766178       39.2374533080        2.1578343016
  S        81.3992842716       37.6842296727       -8.2267648804
  S        83.0856581873       35.6902426537       -4.4218237285
  S        86.0162143166       37.7349196180       -1.6384956383
  C        80.5324159154       36.2989670891       -8.9918494594
  C        80.7544318905       35.0874137479       -8.3738007961
  C        81.5010917769       35.2485709615       -7.1536254065
  C        81.9249961810       36.5527883206       -6.9503054964
  C        82.6909215346       36.8599148905       -5.6967003448
  C        83.3183854347       38.0950484616       -5.4315108101
  C        84.2389137988       38.0231572268       -4.3268160905
  C        84.2856713101       36.7511449753       -3.7418309118
  C        85.0489080290       36.5105371806       -2.4959208913
  C        85.1296037936       35.2987399990       -1.9253795309
  C        86.1748691701       35.3134952874       -0.8828621831
  C        86.7200294677       36.5247935178       -0.6335098471
  H        80.0079199113       36.5135099729       -9.9227263085
  H        80.3198076097       34.1805853938       -8.7870680789
  H        81.7613842329       34.4485358695       -6.4096633352
  H        83.1222434691       39.0036946738       -5.9641810569
  H        84.8035041179       38.8343108171       -3.9504263565
  H        84.5852934765       34.4372586105       -2.1673559449
  H        86.4379902984       34.4253752286       -0.4374509958
  C        87.5395514054       36.6403282848        0.4855806053
  S        88.1887489495       35.4542840031        1.6449333921
  C        88.7276929769       36.7892352306        2.7305815175
  C        89.4173818420       36.6557345110        4.0250722036
  S        90.0852577776       37.8744859820        5.0809418241
  C        90.6800337911       36.5738933812        6.0677674120
  C        91.5077812139       36.7021192841        7.2603781987
  S        92.2621738888       35.3458914874        8.1079057691
  C        93.2388690645       36.4647071625        9.0987303705
  C        92.8912472985       37.7806107698        8.7989592931
  C        92.0254733939       37.9287100310        7.6601547658
  H        91.8839525220       38.8475801338        7.1534249840
  H        93.5077253482       38.5212985326        9.2363568168
  H        93.8872138306       36.0296571362        9.8451232173
  C        90.4538193614       35.3074832107        5.5474860459
  C        89.6828302654       35.3620606976        4.4093649795
  H        89.5312117508       34.4787125411        3.8702824380
  H        90.7751979680       34.4049468025        5.9205872234
  C        88.4071645432       38.0110762849        2.2518760525
  C        87.8946398676       37.9200882652        0.9471105133
  H        87.5692314678       38.8526303387        0.4307303937
  H        88.6651951885       39.0313000842        2.6796849348
  S        87.1589760269       40.9463002477        8.3900531922
  S        85.8116595529       38.6903640628        4.7075177015
  S        82.9718574239       40.7417085029        1.7930670232
  C        88.1934777583       39.9010864947        9.2463568369
  C        88.4219192324       38.7534079377        8.5548479176
  C        87.5896934928       38.5710097696        7.4461424244
  C        86.8960151246       39.7160703533        7.1322746952
  C        86.0966920043       39.8606955912        5.9290489560
  C        85.4221908092       41.0784854786        5.6994004197
  C        84.7537995997       41.0678038639        4.4525518686
  C        84.8345052356       39.8368837909        3.7974417531
  C        84.0878976510       39.6208543170        2.6356819601
  C        84.0666397228       38.3883889288        2.0469421670
  C        83.1998525787       38.3372946078        0.8550250270
  C        82.5396434743       39.5525721582        0.6127990705
  H        88.5325207513       40.2527956203       10.1667813471
  H        89.0695054469       37.9028039077        8.9643469710
  H        87.5529138829       37.7821470029        6.7540910828
  H        85.5567605023       41.9807925865        6.2804449437
  H        84.2486756101       41.9224829214        4.0873101754
  H        84.6408253958       37.5387103803        2.4703575390
  H        82.9856651681       37.4073479141        0.3231058903
  C        81.5803416943       39.6627619419       -0.3941947717
  S        81.2870690657       38.5573236794       -1.7304513495
  C        80.1257695198       39.7201700747       -2.4592583675
  C        79.3586224578       39.5708439805       -3.6868723998
  S        78.3335315617       40.7110614730       -4.5989555114
  C        78.3124305936       39.6342324184       -5.9642803701
  C        77.6290432263       39.8133150483       -7.2134599548
  S        77.3944143058       38.6216787223       -8.4645113934
  C        76.3551250436       39.7331201148       -9.2877925594
  C        76.0945741590       40.8519348677       -8.5632471075
  C        76.7977995554       40.8998920893       -7.3526865800
  H        76.6413868115       41.7364967342       -6.6826205949
  H        75.3394695832       41.4888809012       -8.8975632282
  H        75.9702977612       39.5477323419      -10.2748944485
  C        79.0408088620       38.4264508243       -5.7745843600
  C        79.5608594123       38.4157753047       -4.4735432319
  H        80.2060437969       37.6452145945       -4.1908636221
  H        79.1171897666       37.5813981169       -6.3966767894
  C        80.0284648587       40.8576787474       -1.6880520573
  C        80.8341007384       40.8168714291       -0.4838567058
  H        80.9517005592       41.6217550921        0.2152912193
  H        79.2696641166       41.6808736179       -1.8975573640
  O        99.4872759206       38.0254095829       10.4559624595
  O       100.1127382784       33.7211888701        8.9740716617
  N        99.9301972287       35.9386973735        9.5868333840
  C        99.2312921904       37.1846593111        9.6198145093
  C        98.1607379161       37.3808501111        8.6065431633
  C        97.4008617022       38.5502769493        8.6160045265
  C        96.5007227632       38.7389704582        7.6267525789
  C        96.1712877320       37.7641131032        6.6744663914
  C        96.9195561672       36.5591731958        6.7068502543
  C        96.6139263250       35.5455651437        5.7660651482
  C        97.3116891804       34.3221236510        5.8005587677
  C        98.2961555693       34.1302046947        6.7666817138
  C        98.5410876874       35.1004677585        7.7413713828
  C        99.6696798464       34.8481867005        8.7499759307
  C        97.8775578310       36.3140072464        7.7026440620
  H        97.1293390135       33.4981703427        5.2237537953
  H        98.7980826449       33.1514110145        6.7691687428
  H       100.5302560941       35.7994615487       10.3682201855
  H        97.5100429720       39.3912918710        9.2936045049
  H        95.8615314991       39.5952990787        7.7717357233
  C        95.3039660715       38.0663971144        5.5814146419
  C        95.5889395655       35.7046548409        4.9000918832
  C        94.9753581350       36.9889412626        4.6934680490
  C        94.5284394871       39.2399229862        5.4716816839
  C        95.1180145384       34.6424344653        4.0407039362
  C        94.0700584643       37.2191036216        3.6482968777
  C        93.5393377363       39.3685237069        4.4858558509
  H        94.6922841947       40.1081600991        6.1968457917
  C        94.2427397149       34.9231653506        2.9914261268
  H        95.5742506428       33.6205465339        3.9324770690
  C        93.6950826462       36.1944851745        2.7615796495
  C        93.3086934784       38.3864074134        3.5198372879
  H        92.9300513655       40.3208320913        4.4633511639
  H        94.0260037318       34.1272753853        2.3107361817
  C        92.5519076454       36.3455841510        1.7367444972
  C        92.2113703473       38.6218049770        2.5776789752
  O        92.0608214658       35.4504838918        1.1447540545
  N        91.9690822001       37.6031701932        1.7094862853
  O        91.4995261812       39.6343843714        2.6677092337
  H        91.1236179054       37.6264822495        1.2017386060
  O       104.0535967335       37.5481698222       10.5983465230
  O       105.4470987005       33.7995069985        8.6386989012
  N       104.8293524796       35.8775421423        9.4566709147
  C       103.9815654835       36.9158324137        9.5826005947
  C       102.9253275262       37.0654775827        8.5843876693
  C       102.1584085962       38.2352756808        8.6335335503
  C       101.2046999225       38.4728670453        7.6174989543
  C       100.9783919437       37.5222698638        6.6097116984
  C       101.7619016704       36.2909452465        6.5800982298
  C       101.5931819631       35.3802057759        5.4974722865
  C       102.3973494052       34.1992967121        5.5845796785
  C       103.2898370736       33.9978591662        6.5708086275
  C       103.5655313072       34.9257767542        7.5853470526
  C       104.6999676237       34.7789650706        8.5875252185
  C       102.7188253180       36.0650349729        7.5939402719
  H       102.2200628527       33.4530965106        4.8181141705
  H       103.8835460437       33.1255268814        6.5642372012
  H       105.4167665055       35.6598324049       10.2467376880
  H       102.3529007048       38.9928887890        9.4312723463
  H       100.7354580409       39.4298116926        7.6596191467
  C       100.0430148059       37.8094092856        5.5917148829
  C       100.6715886160       35.6393452043        4.4587732578
  C        99.8767433246       36.8382651441        4.5214758020
  C        99.2725582520       38.9803699600        5.5596597956
  C       100.4414581415       34.7278528171        3.3748348443
  C        98.9360054550       37.1419547309        3.4920687449
  C        98.2502237292       39.1679928910        4.5716026208
  H        99.3012329679       39.7553229723        6.2538330346
  C        99.7021077048       35.1365708897        2.3213195004
  H       100.9515390162       33.7884082757        3.2582246909
  C        98.7982224300       36.2371311730        2.3792322777
  C        98.0824549515       38.2652078408        3.5527993397
  H        97.6118813633       40.0077350570        4.5652534635
  H        99.6696651498       34.5726326453        1.3959945455
  C        97.6940371562       36.4083495760        1.3675055765
  C        97.0320870628       38.4608559422        2.5228990160
  O        97.4395028482       35.6928355845        0.4031865305
  N        96.8799310179       37.4907833724        1.5697639275
  O        96.2740167427       39.4212591005        2.5541534522
  H        95.9261846688       37.3420731213        1.1546080471
  O       109.4215267300       37.8526460405       10.2595752165
  O       110.2897855242       33.8402411359        8.4853959078
  N       109.7156462275       35.8149620092        9.4320339325
  C       108.9739198070       36.9954059275        9.5404489833
  C       107.9521804634       37.2571086453        8.3973705995
  C       107.2770247579       38.4733614182        8.3553226212
  C       106.2395237206       38.6824381811        7.4503563676
  C       105.9037633107       37.7014740746        6.4949185222
  C       106.7506692448       36.5589690269        6.4279118371
  C       106.5084727421       35.5657032801        5.4737542366
  C       107.1881770978       34.3447250103        5.5655043961
  C       108.1014381823       34.0860480441        6.5516974404
  C       108.4755241896       35.0660132946        7.4866991895
  C       109.5228094035       34.8105540780        8.5242668002
  C       107.7169547108       36.2638922747        7.4507139641
  H       107.0517401520       33.5300928360        4.8570642927
  H       108.8497357618       33.3376638504        6.3655871117
  H       110.4554662409       35.6006282851       10.1360467402
  H       107.6228389946       39.2704425321        9.0286066413
  H       105.8039341684       39.6697459188        7.4327013257
  C       104.8725555601       37.9372762949        5.5367911283
  C       105.4962450009       35.8337605253        4.4399952637
  C       104.6622058823       37.0258452251        4.4899878177
  C       104.0255895968       39.0737128627        5.5436033866
  C       105.2843218190       34.8694464905        3.4048339950
  C       103.7106693793       37.2473995479        3.4678183780
  C       103.0339618041       39.2896005395        4.5513849134
  H       104.1047753727       39.8164191492        6.3189029410
  C       104.4371204585       35.1670184165        2.3859037898
  H       105.9373696106       34.0069625419        3.2630538511
  C       103.7002462435       36.3678161835        2.3065277723
  C       102.9145092219       38.3827358908        3.4327772249
  H       102.3459812541       40.1140253297        4.6035595816
  H       104.2487929859       34.4785002503        1.5664363339
  C       102.8111932186       36.6065253869        1.1301970424
  C       101.9002359304       38.5797893373        2.3328087467
  O       102.8255429084       35.9863680407        0.1237553073
  N       101.9645762114       37.7120314252        1.2211837011
  O       101.1152829499       39.4752185220        2.3626539536
  H       101.2979417309       37.7801949961        0.4340528085
252
 i =       10, time =        1.000, E =        49.3148337096
  S        72.6289209855       37.7057378691       -8.4163805043
  S        74.0323112127       35.6976402600       -4.5680541226
  S        76.8920684985       37.9325521225       -1.7867497575
  C        71.5536819431       36.5752422243       -9.1416494486
  C        71.3306881629       35.4652414674       -8.3484181713
  C        72.0803196981       35.4603014050       -7.0972485929
  C        72.9018704134       36.6263638260       -6.9929022121
  C        73.8059345977       36.8218470662       -5.8602570036
  C        74.4845108612       37.9987382429       -5.6636868677
  C        75.1851383660       38.0865437802       -4.3914381658
  C        75.0836856393       36.9403788678       -3.6811427989
  C        75.7766029027       36.7504127074       -2.4347377635
  C        75.7025031224       35.5494378869       -1.7860862098
  C        76.5552213561       35.5566712335       -0.6263960422
  C        77.2087545411       36.7593700664       -0.5012477164
  H        71.1976714025       36.8187719927      -10.1630209749
  H        70.5591670196       34.7078267422       -8.5644127400
  H        71.8038067119       34.7366183590       -6.2790971427
  H        74.4951683120       38.8564238939       -6.3087854572
  H        75.8106093939       38.8979650181       -3.9742655748
  H        75.2809592067       34.5987438164       -2.0866752210
  H        76.7600933800       34.6531165030       -0.1118738940
  C        77.9089236971       37.0133690259        0.6656729271
  S        78.3184738953       35.8892632136        1.9399164610
  C        79.2907229212       37.1433089272        2.6567394020
  C        80.1169401852       37.0171009563        3.8462731883
  S        80.9807167044       38.2999428654        4.7477600794
  C        81.5584088916       37.0772817809        5.9482462498
  C        82.3919187952       37.2545305803        7.0723340481
  S        82.7984159086       35.9718202181        8.2000254805
  C        83.9251709869       36.9680492118        9.1059750449
  C        83.9561476402       38.2360233498        8.5428017764
  C        83.0545647008       38.3899897481        7.4541982625
  H        83.0991206167       39.3683220346        6.8834975474
  H        84.5744533312       38.9757102540        9.0111138165
  H        84.4458985312       36.5394407190        9.9492567493
  C        81.2031906915       35.8408781490        5.5607552564
  C        80.2679324954       35.8638238878        4.5235939375
  H        79.8683135604       34.9145116657        4.1958010652
  H        81.4182961571       34.8587318264        5.9687875987
  C        79.2480947178       38.3118741784        1.9342683104
  C        78.4423621742       38.2259407132        0.7749679599
  H        78.2532235151       39.1010417285        0.1782443142
  H        79.7397275124       39.2716526244        2.1708831605
  S        81.4020625326       37.6868022205       -8.2261709928
  S        83.0841730112       35.6908921475       -4.4192001292
  S        86.0154729142       37.7360535044       -1.6383067555
  C        80.5281659487       36.3009681667       -8.9923868428
  C        80.7401221952       35.0851474979       -8.3707714925
  C        81.5076429431       35.2498907659       -7.1476197744
  C        81.9303465165       36.5511511138       -6.9562691279
  C        82.6899348261       36.8701222922       -5.6985077939
  C        83.3092221813       38.0970094709       -5.4342312904
  C        84.2449050839       38.0227285033       -4.3363309417
  C        84.2893473364       36.7559766408       -3.7418971800
  C        85.0492616554       36.5030849521       -2.4936374756
  C        85.1284127204       35.3000393350       -1.9254972087
  C        86.1724464894       35.3137336319       -0.8922603506
  C        86.7217689740       36.5195815892       -0.6333816600
  H        80.0188318281       36.5196087214       -9.9292184096
  H        80.3254237582       34.1663361696       -8.7932501923
  H        81.7576799699       34.4436977943       -6.4481899218
  H        83.0695083014       39.0183179795       -5.9503987523
  H        84.7956889903       38.8559062069       -3.9748568385
  H        84.5554113119       34.4433195726       -2.1980251883
  H        86.4399819758       34.4189217416       -0.4465795766
  C        87.5412764793       36.6403011355        0.4850683432
  S        88.1903395127       35.4536163503        1.6466283727
  C        88.7248133592       36.7830424386        2.7318600354
  C        89.4170138974       36.6455888117        4.0265929322
  S        90.0872367805       37.8729178027        5.0840808693
  C        90.6781079654       36.5703474065        6.0634167194
  C        91.5067447515       36.6991479322        7.2587683106
  S        92.2612883045       35.3472164032        8.1072508402
  C        93.2381413827       36.4651692611        9.1009685918
  C        92.8830571604       37.7793358801        8.7993272881
  C        92.0205501640       37.9334246993        7.6559986501
  H        91.9014970185       38.8701990183        7.1602384734
  H        93.4971074725       38.5226578509        9.2903622035
  H        93.9021338826       36.0360569027        9.8178783679
  C        90.4598624313       35.3094334944        5.5535222753
  C        89.6978539111       35.3652701961        4.4021221431
  H        89.5286404731       34.4633185047        3.8457284857
  H        90.7945279188       34.4104855392        5.9115674149
  C        88.4063426913       38.0128846051        2.2513328398
  C        87.8978711456       37.9153419920        0.9469700642
  H        87.5798048786       38.8455711533        0.4323132719
  H        88.6544107042       39.0131271136        2.6769075231
  S        87.1545901726       40.9484667078        8.3942847884
  S        85.8130682376       38.6910494389        4.7061749204
  S        82.9780783068       40.7439348409        1.7941101701
  C        88.1852374746       39.9024775897        9.2457284012
  C        88.4184825430       38.7479195891        8.5584061576
  C        87.5936118892       38.5749650570        7.4388581923
  C        86.8910149360       39.7170921332        7.1365349442
  C        86.1002031346       39.8620844850        5.9216906706
  C        85.4203652362       41.0764024648        5.6950930798
  C        84.7541521384       41.0706915913        4.4506799455
  C        84.8338741846       39.8321785714        3.7948258695
  C        84.0899451519       39.6222161360        2.6377240149
  C        84.0609805140       38.3800945123        2.0444557115
  C        83.2044391774       38.3332588793        0.8494022083
  C        82.5330758721       39.5496756525        0.6183689115
  H        88.5470479959       40.2633446058       10.1722472697
  H        89.0492166783       37.8906868996        8.9709976959
  H        87.5631471181       37.7268861695        6.7389604629
  H        85.5235614891       41.9900152847        6.2794137157
  H        84.2566749949       41.9390066924        4.1043144014
  H        84.6313410102       37.5170080423        2.4654519538
  H        82.9902366546       37.4145683218        0.3108225900
  C        81.5732737776       39.6696409996       -0.3926675165
  S        81.2887563340       38.5550126755       -1.7301048259
  C        80.1305591402       39.7226121402       -2.4671511947
  C        79.3557352914       39.5713842201       -3.6926449151
  S        78.3274884787       40.7134031114       -4.5978974920
  C        78.3207780273       39.6335616945       -5.9585384787
  C        77.6292667019       39.8166836170       -7.2131548966
  S        77.3947309207       38.6197753448       -8.4634796221
  C        76.3536569241       39.7320949042       -9.2820834232
  C        76.0896178495       40.8475165611       -8.5576453996
  C        76.7996772571       40.9021241699       -7.3615722270
  H        76.6569229310       41.7684048294       -6.6936720757
  H        75.3658551817       41.5087604305       -8.9025663720
  H        75.9635003405       39.5343398607      -10.2457899215
  C        79.0443730475       38.4286012030       -5.7690233579
  C        79.5655619779       38.4221535198       -4.4755327089
  H        80.1773064695       37.6598169946       -4.1952427067
  H        79.1185025024       37.5908988949       -6.4107158641
  C        80.0236562550       40.8545166892       -1.6886992130
  C        80.8303941287       40.8217656055       -0.4868646396
  H        80.9697777674       41.6164519454        0.1984464291
  H        79.2579597982       41.6878701400       -1.8804517346
  O        99.4887782226       38.0225558035       10.4540031692
  O       100.1154226984       33.7191799875        8.9717065409
  N        99.9313831829       35.9340361032        9.5853389828
  C        99.2291771232       37.1873837181        9.6222505579
  C        98.1581143081       37.3849349497        8.6042284886
  C        97.3972848528       38.5483185017        8.6197562548
  C        96.4971015668       38.7321421096        7.6274157666
  C        96.1676441177       37.7586275374        6.6767759193
  C        96.9112458605       36.5540636402        6.7196402186
  C        96.6176145039       35.5465541315        5.7630451546
  C        97.3072051000       34.3285845661        5.7971992005
  C        98.2998634322       34.1323724169        6.7558123720
  C        98.5389321070       35.1024726420        7.7418693152
  C        99.6699024360       34.8408165813        8.7492214695
  C        97.8756442396       36.3197628944        7.7016541821
  H        97.0993017256       33.4962452363        5.2394411965
  H        98.7629152568       33.1412615947        6.7612480129
  H       100.5171705634       35.7891795485       10.3746029414
  H        97.4927081300       39.4055530457        9.2938453583
  H        95.8620513456       39.5984337323        7.7641687971
  C        95.3044506454       38.0589170172        5.5777385771
  C        95.5886367474       35.7031134398        4.8992873453
  C        94.9808984028       36.9957439367        4.6964341562
  C        94.5223062843       39.2470012627        5.4801710052
  C        95.1173607850       34.6433845426        4.0326895050
  C        94.0734809502       37.2135748367        3.6478404821
  C        93.5373711503       39.3663576448        4.4873782611
  H        94.7039117072       40.1139651559        6.1910303919
  C        94.2385796676       34.9224314742        2.9906603992
  H        95.5872651745       33.6175797490        3.9338176879
  C        93.6910959799       36.1912914538        2.7624423171
  C        93.3169050428       38.3872329914        3.5244121861
  H        92.9558136531       40.3363272885        4.4709776058
  H        94.0436533881       34.1410539090        2.2754308299
  C        92.5504287257       36.3493478006        1.7417076084
  C        92.2054178334       38.6252379990        2.5837115802
  O        92.0537337438       35.4611878654        1.1470572328
  N        91.9685215220       37.6028015225        1.7124739725
  O        91.5006220159       39.6328516205        2.6669800999
  H        91.1204219374       37.6375396153        1.1808963403
  O       104.0539777450       37.5530649661       10.5979672802
  O       105.4349903311       33.8090711720        8.6360788426
  N       104.8260598936       35.8706380901        9.4528561774
  C       103.9891897778       36.9136454896        9.5821519440
  C       102.9310120411       37.0602480623        8.5842679580
  C       102.1581515516       38.2398335191        8.6301221801
  C       101.1974092275       38.4762129693        7.6168295768
  C       100.9705370374       37.5281390594        6.6160284990
  C       101.7627404668       36.2936598180        6.5798003653
  C       101.5925100037       35.3792301631        5.5016268927
  C       102.4027955725       34.2047409406        5.5862046211
  C       103.2899589551       33.9913538069        6.5676578238
  C       103.5670629966       34.9226562787        7.5803799447
  C       104.7020966971       34.7792285889        8.5858933029
  C       102.7165828980       36.0638610552        7.5968981304
  H       102.2424211904       33.4654699338        4.7702721522
  H       103.8863682326       33.1358061476        6.5790820332
  H       105.3815757282       35.6328991139       10.2435459053
  H       102.3354548227       38.9765159735        9.4516851745
  H       100.7706944282       39.4446462546        7.6498803239
  C       100.0442547515       37.8096473459        5.5949120731
  C       100.6640881787       35.6428885197        4.4587514455
  C        99.8746601149       36.8399797504        4.5280800147
  C        99.2692169815       38.9783019360        5.5569245083
  C       100.4421375229       34.7343888175        3.3750338466
  C        98.9387245386       37.1469288529        3.4940637856
  C        98.2484608987       39.1728157358        4.5699835186
  H        99.2966911547       39.7693455085        6.2441625057
  C        99.6977813711       35.1363546688        2.3332433452
  H       100.9338605030       33.7911015503        3.2763436479
  C        98.7896829503       36.2380009467        2.3741667780
  C        98.0827470808       38.2549211360        3.5507658799
  H        97.6252135458       40.0249655105        4.5875948120
  H        99.6661015117       34.5490717992        1.3922688401
  C        97.6887238132       36.4114537903        1.3590445746